 Gaussian 09, Revision D.01,
 Gaussian 09:  AM64L-G09RevD.01 24-Apr-2013

 -------------------------
 # td PBE1PBE/6-311g(2d,p)
 -------------------------

 -
 3
 -
 Symbolic Z-matrix:
 Charge =  1 Multiplicity = 1

                         Standard orientation:
 ---------------------------------------------------------------------
 Center     Atomic      Atomic             Coordinates (Angstroms)
 Number     Number       Type             X           Y           Z
 ---------------------------------------------------------------------
      1          6           0        5.598601   -1.341094   -0.007061
      2          6           0        6.472492   -2.422432   -0.011892
      3          6           0        7.847580   -2.159226   -0.013286
      4          6           0        8.315634   -0.837298   -0.010001
      5          6           0        7.430522    0.245543   -0.005081
      6          6           0        6.051786   -0.014271   -0.003370
      7          7           0        5.008669    0.953335    0.001698
      8          6           0        3.735978    0.440659    0.000627
      9         16           0        3.784358   -1.393975   -0.004841
     10          6           0       -3.757932    0.702261    0.001220
     11         16           0       -5.015177    2.011654   -0.006267
     12          6           0       -6.312514    0.749865   -0.007997
     13          6           0       -5.765462   -0.549197   -0.002665
     14          7           0       -4.336845   -0.545510    0.004333
     15          6           0        5.463856    2.384446    0.006824
     16          6           0        4.442730    3.518833    0.023090
     17          6           0       -3.409521   -1.720425    0.016855
     18          6           0       -3.977526   -3.137934    0.043250
     19          6           0       -7.682542    0.994144   -0.014610
     20          6           0       -8.550732   -0.099379   -0.016520
     21          6           0       -8.029944   -1.400820   -0.012208
     22          6           0       -6.653400   -1.640134   -0.005468
     23          6           0       -1.192737    0.448543    0.001786
     24          6           0       -2.420801    1.123289    0.003079
     25          6           0        2.508263    1.103976    0.002676
     26          6           0        1.265069    0.461367    0.001302
     27          6           0        0.035449    1.122518    0.003368
     28          1           0        6.101367   -3.440361   -0.014614
     29          1           0        8.550709   -2.983856   -0.017075
     30          1           0        9.382294   -0.644911   -0.011373
     31          1           0        7.819986    1.254521   -0.003004
     32          1           0        6.097547    2.493575   -0.880704
     33          1           0        6.110765    2.481774    0.886059
     34          1           0        5.011773    4.454819    0.030058
     35          1           0        3.819706    3.515333    0.920655
     36          1           0        3.811538    3.533932   -0.868586
     37          1           0       -2.771988   -1.587563    0.897926
     38          1           0       -2.779255   -1.615513   -0.873313
     39          1           0       -3.120195   -3.819797    0.060350
     40          1           0       -4.560476   -3.377342   -0.848580
     41          1           0       -4.567649   -3.340716    0.939512
     42          1           0       -8.062971    2.008762   -0.018462
     43          1           0       -9.622367    0.060872   -0.021732
     44          1           0       -8.704480   -2.249417   -0.014335
     45          1           0       -6.310509   -2.658897   -0.003059
     46          1           0       -1.143829   -0.633631   -0.001701
     47          1           0       -2.330639    2.207101    0.003995
     48          1           0        2.501254    2.181621    0.005248
     49          1           0        1.239239   -0.628356   -0.001612
     50          1           0        0.029416    2.211020    0.006356
 ---------------------------------------------------------------------

 SCF Done:  E(RPBE1PBE) =  -1794.76811506     A.U. after   15 cycles

 Excitation energies and oscillator strengths:

 Excited State   1:      Singlet-A      2.4608 eV  503.84 nm  f=2.1204  <S**2>=0.000
     103 ->104         0.70965
     103 <-104        -0.12275
 This state for optimization and/or second-order correction.
 Total Energy, E(TD-HF/TD-KS) =  -1794.67768351
 Copying the excited state density for this state as the 1-particle RhoCI density.

 Excited State   2:      Singlet-A      3.5212 eV  352.10 nm  f=0.0432  <S**2>=0.000
     100 ->104         0.22058
     102 ->104         0.64700
     103 ->105         0.14880

 Excited State   3:      Singlet-A      3.6269 eV  341.84 nm  f=0.0284  <S**2>=0.000
     101 ->104         0.69055

 The electronic state is 1-A.
 Alpha  occ. eigenvalues --  -89.16342 -89.16228 -14.57155 -14.56948 -10.43822
 Alpha  occ. eigenvalues --  -10.43582 -10.39190 -10.38650 -10.38532 -10.38402
 Alpha  occ. eigenvalues --  -10.37516 -10.37513 -10.35730 -10.35541 -10.34124
 Alpha  occ. eigenvalues --  -10.33617 -10.33574 -10.33449 -10.33442 -10.33436
 Alpha  occ. eigenvalues --  -10.32947 -10.32845 -10.32781 -10.32736 -10.32689
 Alpha  occ. eigenvalues --  -10.32607 -10.32502  -8.14447  -8.14328  -6.08170
 Alpha  occ. eigenvalues --   -6.08066  -6.07834  -6.07727  -6.07334  -6.07192
 Alpha  occ. eigenvalues --   -1.13182  -1.13137  -0.99254  -0.99063  -0.96938
 Alpha  occ. eigenvalues --   -0.95639  -0.94208  -0.92155  -0.90045  -0.89499
 Alpha  occ. eigenvalues --   -0.88830  -0.87345  -0.86635  -0.85128  -0.82056
 Alpha  occ. eigenvalues --   -0.79185  -0.77990  -0.77348  -0.74380  -0.73378
 Alpha  occ. eigenvalues --   -0.72389  -0.71650  -0.69276  -0.68986  -0.67909
 Alpha  occ. eigenvalues --   -0.64317  -0.63358  -0.63080  -0.62521  -0.61330
 Alpha  occ. eigenvalues --   -0.61021  -0.60508  -0.59735  -0.57499  -0.57207
 Alpha  occ. eigenvalues --   -0.56284  -0.55937  -0.55658  -0.54951  -0.54389
 Alpha  occ. eigenvalues --   -0.54345  -0.53025  -0.52690  -0.51933  -0.51471
 Alpha  occ. eigenvalues --   -0.51001  -0.50653  -0.50242  -0.49623  -0.48873
 Alpha  occ. eigenvalues --   -0.48732  -0.48250  -0.47954  -0.47750  -0.46891
 Alpha  occ. eigenvalues --   -0.46684  -0.46339  -0.45408  -0.45324  -0.44872
 Alpha  occ. eigenvalues --   -0.42155  -0.41540  -0.40635  -0.37481  -0.35447
 Alpha  occ. eigenvalues --   -0.35155  -0.34413  -0.29222
 Alpha virt. eigenvalues --   -0.19686  -0.12169  -0.11219  -0.11010  -0.10944
 Alpha virt. eigenvalues --   -0.10934  -0.09764  -0.08834  -0.05722  -0.04879
 Alpha virt. eigenvalues --   -0.04760  -0.04464  -0.03293  -0.03073  -0.02848

 Mulliken charges:
               1
     1  C    0.004819
     2  C   -0.199462
     3  C   -0.048845
     4  C   -0.081698
     5  C   -0.149648
     6  C    0.342413
     7  N   -0.473784
     8  C    0.369869
     9  S    0.147270
    10  C    0.325420
    11  S    0.170067
    12  C    0.013869
    13  C    0.297460
    14  N   -0.454604
    15  C   -0.081529
    16  C   -0.327406
    17  C   -0.103708
    18  C   -0.316640
    19  C   -0.200282
    20  C   -0.046160
    21  C   -0.087342
    22  C   -0.112030
    23  C   -0.007404
    24  C   -0.211523
    25  C   -0.244586
    26  C   -0.017368
    27  C   -0.096820
    28  H    0.100244
    29  H    0.099516
    30  H    0.097815
    31  H    0.096612
    32  H    0.136669
    33  H    0.136780
    34  H    0.141380
    35  H    0.137563
    36  H    0.137123
    37  H    0.131344
    38  H    0.130921
    39  H    0.137252
    40  H    0.141335
    41  H    0.142145
    42  H    0.103870
    43  H    0.099540
    44  H    0.096493
    45  H    0.094098
    46  H    0.080802
    47  H    0.098322
    48  H    0.091192
    49  H    0.087458
    50  H    0.071174
 Sum of Mulliken charges =   1.00000

 Dipole moment (field-independent basis, Debye):
    X=              1.2745    Y=             -0.0716    Z=              0.0205  Tot=              1.2767
 Quadrupole moment (field-independent basis, Debye-Ang):
   XX=              8.3726   YY=           -130.2853   ZZ=           -180.2352
   XY=             16.8915   XZ=              0.0262   YZ=              0.0113

 Normal termination of Gaussian 09 at Fri Oct 30 16:13:21 2020.
