 Gaussian 09, Revision D.01,
 Gaussian 09:  AM64L-G09RevD.01 24-Apr-2013

 -------------------------
 # td PBE1PBE/6-311g(2d,p)
 -------------------------

 -
 4
 -
 Symbolic Z-matrix:
 Charge =  1 Multiplicity = 1

                         Standard orientation:
 ---------------------------------------------------------------------
 Center     Atomic      Atomic             Coordinates (Angstroms)
 Number     Number       Type             X           Y           Z
 ---------------------------------------------------------------------
      1          6           0       -6.697013    1.397967    0.076083
      2          6           0       -7.577134    2.465789    0.228239
      3          6           0       -8.945800    2.197083    0.223717
      4          6           0       -9.413576    0.885878    0.072614
      5          6           0       -8.532715   -0.183482   -0.080936
      6          6           0       -7.159613    0.082360   -0.084529
      7          7           0       -6.114073   -0.839914   -0.237288
      8          6           0       -4.858721   -0.305620   -0.162315
      9         16           0       -4.935608    1.441905    0.057700
     10          6           0        5.051160   -0.739619   -0.107411
     11         16           0        6.345379   -1.897051    0.195151
     12          6           0        7.555153   -0.624438    0.160728
     13          6           0        6.947680    0.619747   -0.072020
     14          7           0        5.555611    0.522766   -0.241081
     15          6           0       -6.363128   -2.279499   -0.426776
     16          6           0       -6.420691   -3.052709    0.891845
     17          6           0        4.763174    1.697198   -0.641820
     18          6           0        4.282011    2.535863    0.544080
     19          6           0        8.933016   -0.740658    0.331250
     20          6           0        9.704423    0.418755    0.270211
     21          6           0        9.103447    1.663702    0.044090
     22          6           0        7.725388    1.781139   -0.128012
     23          6           0        2.511173   -0.559729   -0.172275
     24          6           0        3.738622   -1.226444   -0.180119
     25          6           0        0.057497   -0.550222   -0.192427
     26          6           0        1.280886   -1.217113   -0.244251
     27          6           0       -3.664775   -1.025934   -0.239581
     28          6           0       -2.391713   -0.453175   -0.190674
     29          6           0       -1.196027   -1.164099   -0.252954
     30          1           0       -7.208122    3.479229    0.349078
     31          1           0       -9.651456    3.012985    0.342209
     32          1           0      -10.481562    0.692393    0.077564
     33          1           0       -8.914292   -1.192937   -0.185400
     34          1           0       -5.582812   -2.667379   -1.085330
     35          1           0       -7.301495   -2.369328   -0.978539
     36          1           0       -6.620011   -4.110120    0.690147
     37          1           0       -7.217095   -2.671279    1.538263
     38          1           0       -5.474096   -2.979266    1.435995
     39          1           0        3.933122    1.336580   -1.251476
     40          1           0        5.397147    2.292666   -1.304143
     41          1           0        3.708600    3.394242    0.178741
     42          1           0        5.126201    2.914669    1.128036
     43          1           0        3.643936    1.955418    1.217616
     44          1           0        9.392142   -1.708130    0.507230
     45          1           0       10.779604    0.353540    0.402176
     46          1           0        9.717699    2.557658    0.004490
     47          1           0        7.278587    2.755222   -0.291860
     48          1           0        2.474354    0.520666   -0.069176
     49          1           0        3.682741   -2.312861   -0.191766
     50          1           0        0.078893    0.536741   -0.095154
     51          1           0        1.277025   -2.301988   -0.341517
     52          1           0       -3.730217   -2.105185   -0.330512
     53          1           0       -2.314199    0.630683   -0.094343
     54          1           0       -1.238167   -2.248277   -0.349902
 ---------------------------------------------------------------------

 SCF Done:  E(RPBE1PBE) =  -1872.13716818     A.U. after   17 cycles

 Excitation energies and oscillator strengths:

 Excited State   1:      Singlet-A      2.2426 eV  552.86 nm  f=2.6914  <S**2>=0.000
     110 ->111         0.71184
     110 <-111        -0.13701
 This state for optimization and/or second-order correction.
 Total Energy, E(TD-HF/TD-KS) =  -1872.05475375
 Copying the excited state density for this state as the 1-particle RhoCI density.

 Excited State   2:      Singlet-A      3.2864 eV  377.26 nm  f=0.0116  <S**2>=0.000
     109 ->111         0.62428
     110 ->112        -0.32445

 Excited State   3:      Singlet-A      3.6623 eV  338.55 nm  f=0.0306  <S**2>=0.000
     108 ->111         0.68043
     110 ->112         0.12309
     110 ->114        -0.10116

 The electronic state is 1-A.
 Alpha  occ. eigenvalues --  -89.15953 -89.15772 -14.56280 -14.55835 -10.42738
 Alpha  occ. eigenvalues --  -10.42308 -10.38184 -10.37932 -10.37622 -10.37209
 Alpha  occ. eigenvalues --  -10.36872 -10.36707 -10.34682 -10.34457 -10.33824
 Alpha  occ. eigenvalues --  -10.33302 -10.33243 -10.33190 -10.33080 -10.33038
 Alpha  occ. eigenvalues --  -10.32820 -10.32516 -10.32269 -10.32210 -10.31991
 Alpha  occ. eigenvalues --  -10.31960 -10.31884 -10.31839 -10.31265  -8.14228
 Alpha  occ. eigenvalues --   -8.14050  -6.07939  -6.07769  -6.07578  -6.07409
 Alpha  occ. eigenvalues --   -6.07136  -6.06943  -1.13937  -1.13695  -0.99263
 Alpha  occ. eigenvalues --   -0.99038  -0.96660  -0.96351  -0.94803  -0.92995
 Alpha  occ. eigenvalues --   -0.90664  -0.89355  -0.88971  -0.87926  -0.86513
 Alpha  occ. eigenvalues --   -0.85972  -0.84523  -0.81459  -0.77934  -0.77727
 Alpha  occ. eigenvalues --   -0.77270  -0.74655  -0.73839  -0.72283  -0.71684
 Alpha  occ. eigenvalues --   -0.69886  -0.68311  -0.67569  -0.67117  -0.64082
 Alpha  occ. eigenvalues --   -0.63790  -0.63311  -0.61505  -0.60947  -0.59227
 Alpha  occ. eigenvalues --   -0.58314  -0.58240  -0.58047  -0.57549  -0.57281
 Alpha  occ. eigenvalues --   -0.56655  -0.56117  -0.55305  -0.54735  -0.54287
 Alpha  occ. eigenvalues --   -0.53640  -0.52567  -0.51380  -0.51024  -0.50752
 Alpha  occ. eigenvalues --   -0.50426  -0.50227  -0.49834  -0.48708  -0.48630
 Alpha  occ. eigenvalues --   -0.47866  -0.47674  -0.47395  -0.47284  -0.47065
 Alpha  occ. eigenvalues --   -0.46746  -0.46506  -0.46386  -0.45512  -0.45252
 Alpha  occ. eigenvalues --   -0.45224  -0.42510  -0.41968  -0.41656  -0.38854
 Alpha  occ. eigenvalues --   -0.36239  -0.35050  -0.34823  -0.32982  -0.27815
 Alpha virt. eigenvalues --   -0.19345  -0.12904  -0.10761  -0.10614  -0.09652
 Alpha virt. eigenvalues --   -0.09455  -0.09162  -0.08740  -0.06116  -0.04600
 Alpha virt. eigenvalues --   -0.03904  -0.03321  -0.02978  -0.02751  -0.01490

 Mulliken charges:
               1
     1  C    0.008926
     2  C   -0.209961
     3  C   -0.051033
     4  C   -0.068575
     5  C   -0.153306
     6  C    0.330175
     7  N   -0.429892
     8  C    0.367884
     9  S    0.184932
    10  C    0.346801
    11  S    0.199179
    12  C   -0.002528
    13  C    0.329550
    14  N   -0.410578
    15  C   -0.144459
    16  C   -0.283085
    17  C   -0.167280
    18  C   -0.282889
    19  C   -0.207739
    20  C   -0.048979
    21  C   -0.069157
    22  C   -0.158760
    23  C   -0.008544
    24  C   -0.247014
    25  C   -0.027699
    26  C   -0.089507
    27  C   -0.254926
    28  C   -0.027757
    29  C   -0.085393
    30  H    0.099009
    31  H    0.097543
    32  H    0.096539
    33  H    0.092565
    34  H    0.130759
    35  H    0.132352
    36  H    0.132913
    37  H    0.131591
    38  H    0.128021
    39  H    0.136398
    40  H    0.135200
    41  H    0.131174
    42  H    0.133111
    43  H    0.126886
    44  H    0.102890
    45  H    0.098996
    46  H    0.096982
    47  H    0.093701
    48  H    0.082955
    49  H    0.096278
    50  H    0.071466
    51  H    0.072148
    52  H    0.087255
    53  H    0.084659
    54  H    0.070220
 Sum of Mulliken charges =   1.00000

 Dipole moment (field-independent basis, Debye):
    X=             -0.5433    Y=              0.4298    Z=             -0.3705  Tot=              0.7856
 Quadrupole moment (field-independent basis, Debye-Ang):
   XX=             55.5018   YY=           -145.6842   ZZ=           -191.6064
   XY=             17.3889   XZ=              0.6486   YZ=              0.5496

 Normal termination of Gaussian 09 at Fri Oct 30 16:19:44 2020.
