 Gaussian 09, Revision D.01,
 Gaussian 09:  AM64L-G09RevD.01 24-Apr-2013

 -------------------------
 # td PBE1PBE/6-311g(2d,p)
 -------------------------

 -
 5
 -
 Symbolic Z-matrix:
 Charge =  0 Multiplicity = 1

                         Standard orientation:
 ---------------------------------------------------------------------
 Center     Atomic      Atomic             Coordinates (Angstroms)
 Number     Number       Type             X           Y           Z
 ---------------------------------------------------------------------
      1          6           0      -11.734347   -1.463270    0.197823
      2          6           0      -13.193380   -1.964978    0.357528
      3          6           0      -14.150305   -1.366251   -0.666975
      4          6           0      -14.197879    0.145991   -0.470499
      5          6           0      -12.839809    0.781151   -0.266473
      6          6           0      -11.699200    0.069135   -0.020735
      7          6           0      -12.878548    2.293672   -0.399781
      8          6           0      -11.014600   -1.853889    1.513038
      9          6           0      -11.087804   -2.209300   -0.996519
     10          6           0      -10.434650    0.808656    0.027994
     11          6           0       -9.147712    0.368476    0.051748
     12          6           0       -7.970994    1.218788    0.064208
     13          6           0       -6.738494    0.618732    0.070151
     14          6           0       -5.445853    1.237956    0.078711
     15          6           0       -4.280345    0.525898    0.081573
     16          6           0       -2.942615    1.063559    0.086650
     17          6           0       -1.885537    0.184962    0.087380
     18          6           0       -0.488371    0.479787    0.089053
     19          6           0        0.488347   -0.479969    0.088801
     20          6           0        1.885511   -0.185136    0.087475
     21          6           0        2.942600   -1.063720    0.086252
     22          6           0        4.280317   -0.526037    0.081579
     23          6           0        5.445840   -1.238065    0.078089
     24          6           0        6.738463   -0.618803    0.070000
     25          6           0        7.970984   -1.218814    0.063575
     26          6           0        9.147663   -0.368436    0.051849
     27          6           0       10.434624   -0.808549    0.027759
     28          6           0       -8.156553    2.717150    0.069156
     29          6           0       -2.769508    2.564166    0.089783
     30          6           0        2.769517   -2.564327    0.088440
     31          6           0        8.156583   -2.717179    0.067262
     32          6           0       11.699201   -0.069059   -0.020403
     33          6           0       11.734174    1.463486    0.197241
     34          6           0       13.193129    1.965583    0.356510
     35          6           0       14.150188    1.366019   -0.667374
     36          6           0       14.198042   -0.145980   -0.469211
     37          6           0       12.840010   -0.781172   -0.264991
     38          6           0       12.879257   -2.293768   -0.396971
     39          6           0       11.014549    1.854740    1.512348
     40          6           0       11.087391    2.208725   -0.997464
     41          1           0      -13.552321   -1.703956    1.363685
     42          1           0      -13.192047   -3.061404    0.303248
     43          1           0      -15.153264   -1.798105   -0.563126
     44          1           0      -13.813140   -1.597981   -1.685258
     45          1           0      -14.836724    0.392993    0.394939
     46          1           0      -14.685037    0.631223   -1.329306
     47          1           0      -12.325572    2.809643    0.392261
     48          1           0      -12.466482    2.633120   -1.360193
     49          1           0      -13.913425    2.649109   -0.353524
     50          1           0      -11.416556   -1.280703    2.356288
     51          1           0      -11.183867   -2.918184    1.719753
     52          1           0       -9.936176   -1.690791    1.488324
     53          1           0      -10.062409   -1.885242   -1.187849
     54          1           0      -11.067666   -3.288842   -0.800474
     55          1           0      -11.653264   -2.045445   -1.920085
     56          1           0      -10.553220    1.886292    0.000541
     57          1           0       -8.931611   -0.694439    0.047554
     58          1           0       -6.727213   -0.472334    0.066433
     59          1           0       -5.394175    2.323265    0.081444
     60          1           0       -4.354088   -0.562482    0.078481
     61          1           0       -2.136452   -0.876804    0.085428
     62          1           0       -0.172475    1.521613    0.089536
     63          1           0        0.172451   -1.521796    0.088568
     64          1           0        2.136416    0.876634    0.086232
     65          1           0        4.354044    0.562348    0.079364
     66          1           0        5.394192   -2.323379    0.079909
     67          1           0        6.727154    0.472266    0.067137
     68          1           0        8.931483    0.694460    0.048557
     69          1           0       10.553176   -1.886154   -0.000703
     70          1           0       -8.743395    3.036257    0.939921
     71          1           0       -7.209108    3.257895    0.093049
     72          1           0       -8.704911    3.047382   -0.822520
     73          1           0       -3.241932    3.013890   -0.792798
     74          1           0       -3.248496    3.010862    0.970351
     75          1           0       -1.721474    2.867936    0.094306
     76          1           0        1.721486   -2.868120    0.092840
     77          1           0        3.241891   -3.013511   -0.794442
     78          1           0        3.248565   -3.011550    0.968706
     79          1           0        7.209159   -3.257966    0.091008
     80          1           0        8.704687   -3.046679   -0.824841
     81          1           0        8.743681   -3.036978    0.937599
     82          1           0       13.191601    3.061957    0.301212
     83          1           0       13.552096    1.705563    1.362915
     84          1           0       15.153054    1.798199   -0.563974
     85          1           0       13.812978    1.596575   -1.685912
     86          1           0       14.836658   -0.391875    0.396706
     87          1           0       14.685561   -0.632101   -1.327317
     88          1           0       12.323558   -2.809301    0.393398
     89          1           0       12.470743   -2.633888   -1.358690
     90          1           0       13.914032   -2.649023   -0.346838
     91          1           0       11.416667    1.282028    2.355841
     92          1           0       11.183770    2.919158    1.718473
     93          1           0        9.936132    1.691574    1.487888
     94          1           0       10.062138    1.884180   -1.188707
     95          1           0       11.066849    3.288348   -0.801914
     96          1           0       11.652983    2.044667   -1.920915
 ---------------------------------------------------------------------

 SCF Done:  E(RPBE1PBE) =  -1556.38711439     A.U. after   14 cycles

 Excitation energies and oscillator strengths:

 Excited State   1:      Singlet-A      2.1660 eV  572.41 nm  f=4.2697  <S**2>=0.000
     148 -> 149        0.70793
 This state for optimization and/or second-order correction.
 Total Energy, E(TD-HF/TD-KS) =  -1556.30751555
 Copying the excited state density for this state as the 1-particle RhoCI density.

 Excited State   2:      Singlet-A      2.6426 eV  469.18 nm  f=0.0001  <S**2>=0.000
     147 -> 149        0.58559
     148 -> 150       -0.38033

 Excited State   3:      Singlet-A      3.3088 eV  374.71 nm  f=0.0893  <S**2>=0.000
     146 -> 149        0.61396
     147 -> 150        0.10883
     148 -> 151        0.31641

 The electronic state is 1-A.
 Alpha  occ. eigenvalues --  -10.23905 -10.23905 -10.23694 -10.23694 -10.23486
 Alpha  occ. eigenvalues --  -10.23486 -10.23292 -10.23291 -10.22585 -10.22537
 Alpha  occ. eigenvalues --  -10.22536 -10.22513 -10.22279 -10.22279 -10.22271
 Alpha  occ. eigenvalues --  -10.22271 -10.22159 -10.22159 -10.22104 -10.22104
 Alpha  occ. eigenvalues --  -10.21971 -10.21971 -10.21871 -10.21871 -10.21693
 Alpha  occ. eigenvalues --  -10.21693 -10.21641 -10.21641 -10.21582 -10.21581
 Alpha  occ. eigenvalues --  -10.21529 -10.21529 -10.21362 -10.21362 -10.21136
 Alpha  occ. eigenvalues --  -10.21136 -10.20292 -10.20292 -10.20157 -10.20156
 Alpha  occ. eigenvalues --   -0.87711  -0.87710  -0.86319  -0.85787  -0.84826
 Alpha  occ. eigenvalues --   -0.84202  -0.81649  -0.81153  -0.81144  -0.80260
 Alpha  occ. eigenvalues --   -0.79620  -0.78013  -0.76864  -0.74633  -0.74322
 Alpha  occ. eigenvalues --   -0.72670  -0.71090  -0.71058  -0.70537  -0.70256
 Alpha  occ. eigenvalues --   -0.70138  -0.70130  -0.69539  -0.69494  -0.68748
 Alpha  occ. eigenvalues --   -0.65614  -0.63620  -0.62224  -0.60795  -0.58879
 Alpha  occ. eigenvalues --   -0.58093  -0.58093  -0.56702  -0.56296  -0.55147
 Alpha  occ. eigenvalues --   -0.54792  -0.54127  -0.52999  -0.51898  -0.51496
 Alpha  occ. eigenvalues --   -0.50105  -0.49394  -0.48955  -0.48755  -0.48195
 Alpha  occ. eigenvalues --   -0.47732  -0.46535  -0.46236  -0.45945  -0.45757
 Alpha  occ. eigenvalues --   -0.44692  -0.44402  -0.43947  -0.43654  -0.43602
 Alpha  occ. eigenvalues --   -0.43530  -0.43230  -0.43159  -0.42966  -0.42921
 Alpha  occ. eigenvalues --   -0.42895  -0.42834  -0.41690  -0.41657  -0.41585
 Alpha  occ. eigenvalues --   -0.41432  -0.40718  -0.40189  -0.40022  -0.39889
 Alpha  occ. eigenvalues --   -0.39780  -0.39685  -0.38983  -0.38818  -0.38353
 Alpha  occ. eigenvalues --   -0.38036  -0.37950  -0.37601  -0.37372  -0.37241
 Alpha  occ. eigenvalues --   -0.36760  -0.36288  -0.36046  -0.36044  -0.35862
 Alpha  occ. eigenvalues --   -0.35668  -0.35436  -0.35246  -0.35010  -0.34801
 Alpha  occ. eigenvalues --   -0.34648  -0.34544  -0.34180  -0.33583  -0.32978
 Alpha  occ. eigenvalues --   -0.32907  -0.31870  -0.31784  -0.31473  -0.30877
 Alpha  occ. eigenvalues --   -0.30169  -0.30146  -0.28940  -0.26600  -0.24734
 Alpha  occ. eigenvalues --   -0.22294  -0.19725  -0.17151
 Alpha virt. eigenvalues --   -0.08536  -0.05027  -0.02100   0.01031   0.03519
 Alpha virt. eigenvalues --    0.04731   0.04732   0.05304   0.05452   0.05867
 Alpha virt. eigenvalues --    0.06050   0.06201   0.06283   0.06582   0.07174

 Mulliken charges:
               1
     1  C   -0.335121
     2  C   -0.118981
     3  C   -0.167624
     4  C   -0.187364
     5  C   -0.013333
     6  C    0.148783
     7  C   -0.335347
     8  C   -0.241310
     9  C   -0.225535
    10  C   -0.077915
    11  C   -0.155694
    12  C    0.111079
    13  C   -0.127971
    14  C   -0.049096
    15  C   -0.130740
    16  C    0.082853
    17  C   -0.110707
    18  C   -0.057131
    19  C   -0.057133
    20  C   -0.110707
    21  C    0.082851
    22  C   -0.130737
    23  C   -0.049104
    24  C   -0.127971
    25  C    0.111081
    26  C   -0.155752
    27  C   -0.077787
    28  C   -0.318002
    29  C   -0.317027
    30  C   -0.317026
    31  C   -0.318006
    32  C    0.148687
    33  C   -0.335048
    34  C   -0.118964
    35  C   -0.167618
    36  C   -0.187437
    37  C   -0.013298
    38  C   -0.335283
    39  C   -0.241313
    40  C   -0.225560
    41  H    0.086334
    42  H    0.083850
    43  H    0.084382
    44  H    0.093170
    45  H    0.104685
    46  H    0.101014
    47  H    0.120994
    48  H    0.124419
    49  H    0.108276
    50  H    0.107898
    51  H    0.100557
    52  H    0.100629
    53  H    0.106081
    54  H    0.098529
    55  H    0.102145
    56  H    0.064708
    57  H    0.061574
    58  H    0.052782
    59  H    0.063703
    60  H    0.052306
    61  H    0.054284
    62  H    0.058487
    63  H    0.058488
    64  H    0.054284
    65  H    0.052305
    66  H    0.063701
    67  H    0.052780
    68  H    0.061573
    69  H    0.064693
    70  H    0.121962
    71  H    0.102036
    72  H    0.122228
    73  H    0.122511
    74  H    0.122537
    75  H    0.104099
    76  H    0.104100
    77  H    0.122509
    78  H    0.122538
    79  H    0.102037
    80  H    0.122234
    81  H    0.121956
    82  H    0.083845
    83  H    0.086330
    84  H    0.084383
    85  H    0.093171
    86  H    0.104683
    87  H    0.101008
    88  H    0.120948
    89  H    0.124381
    90  H    0.108318
    91  H    0.107906
    92  H    0.100561
    93  H    0.100622
    94  H    0.106109
    95  H    0.098528
    96  H    0.102137
 Sum of Mulliken charges =   0.00000

 Dipole moment (field-independent basis, Debye):
    X=              0.0012    Y=              0.0000    Z=             -0.3164  Tot=              0.3164
 Quadrupole moment (field-independent basis, Debye-Ang):
   XX=           -186.2523   YY=           -231.9164   ZZ=           -259.8201
   XY=            -11.0722   XZ=             -0.0001   YZ=              0.0082

 Normal termination of Gaussian 09 at Fri Oct 30 16:14:39 2020.
