 Gaussian 09, Revision D.01,
 Gaussian 09:  AM64L-G09RevD.01 24-Apr-2013

 -------------------------
 # td PBE1PBE/6-311g(2d,p)
 -------------------------

 -
 6
 -
 Symbolic Z-matrix:
 Charge =  0 Multiplicity = 1

                         Standard orientation:
 ---------------------------------------------------------------------
 Center     Atomic      Atomic             Coordinates (Angstroms)
 Number     Number       Type             X           Y           Z
 ---------------------------------------------------------------------
      1          6           0        1.750780   -0.605632   -0.000001
      2          6           0        2.923599    0.069155   -0.000001
      3          6           0        4.235490   -0.673273    0.000000
      4          6           0        3.049762    1.570878    0.000000
      5          6           0        0.409297   -0.060626   -0.000001
      6          6           0       -0.700408   -0.836292    0.000001
      7          6           0       -2.111394   -0.421800    0.000000
      8          6           0       -3.133981   -1.549581    0.000000
      9          6           0       -2.497367    0.872331    0.000001
     10          6           0       -3.905517    1.389134    0.000000
     11          1           0        1.803844   -1.695544    0.000000
     12          1           0        4.092591   -1.758416    0.000008
     13          1           0        4.841138   -0.409963   -0.879583
     14          1           0        4.841142   -0.409952    0.879577
     15          1           0        2.088349    2.089108   -0.000031
     16          1           0        3.614289    1.912134    0.879501
     17          1           0        3.614346    1.912130   -0.879465
     18          1           0        0.303831    1.021984   -0.000003
     19          1           0       -0.541535   -1.915368    0.000003
     20          1           0       -2.644396   -2.528058    0.000003
     21          1           0       -3.784305   -1.511940    0.882244
     22          1           0       -3.784300   -1.511944   -0.882248
     23          1           0       -1.728418    1.644035    0.000001
     24          1           0       -4.651995    0.590582   -0.000002
     25          1           0       -4.093071    2.022722    0.879019
     26          1           0       -4.093069    2.022724   -0.879018
 ---------------------------------------------------------------------

 SCF Done:  E(RPBE1PBE) =  -390.274161457     A.U. after   12 cycles

 Excitation energies and oscillator strengths:

 Excited State   1:      Singlet-A      4.1284 eV  300.32 nm  f=0.8207  <S**2>=0.000
      38 -> 39         0.70946
      38 <- 39        -0.10132
 This state for optimization and/or second-order correction.
 Total Energy, E(TD-HF/TD-KS) =  -390.122444395
 Copying the excited state density for this state as the 1-particle RhoCI density.

 Excited State   2:      Singlet-A      5.4049 eV  229.39 nm  f=0.0098  <S**2>=0.000
      37 -> 39         0.59972
      38 -> 40         0.36797

 Excited State   3:      Singlet-A      5.9344 eV  208.92 nm  f=0.0021  <S**2>=0.000
      38 -> 41         0.61935
      38 -> 42         0.13207
      38 -> 43         0.29934

 The electronic state is 1-A.
 Alpha  occ. eigenvalues --  -10.23142 -10.22642 -10.21755 -10.21667 -10.21481
 Alpha  occ. eigenvalues --  -10.21454 -10.21346 -10.21332 -10.21233 -10.21131
 Alpha  occ. eigenvalues --   -0.84944  -0.83202  -0.78233  -0.74428  -0.71330
 Alpha  occ. eigenvalues --   -0.70008  -0.66132  -0.60231  -0.53912  -0.52389
 Alpha  occ. eigenvalues --   -0.49363  -0.47219  -0.44884  -0.44443  -0.43270
 Alpha  occ. eigenvalues --   -0.42228  -0.40949  -0.39826  -0.39568  -0.38576
 Alpha  occ. eigenvalues --   -0.38434  -0.37795  -0.36310  -0.34366  -0.33922
 Alpha  occ. eigenvalues --   -0.33193  -0.26986  -0.19966
 Alpha virt. eigenvalues --   -0.03893   0.04829   0.05569   0.06054   0.06551
 Alpha virt. eigenvalues --    0.08790   0.09822   0.10446   0.10945   0.11407
 Alpha virt. eigenvalues --    0.12852   0.12974   0.14465   0.14660   0.14793

 Mulliken charges:
               1
     1  C   -0.069182
     2  C   -0.040813
     3  C   -0.287061
     4  C   -0.287429
     5  C   -0.050379
     6  C   -0.108703
     7  C    0.032909
     8  C   -0.313250
     9  C   -0.135479
    10  C   -0.282568
    11  H    0.050584
    12  H    0.102671
    13  H    0.109099
    14  H    0.109098
    15  H    0.099671
    16  H    0.112090
    17  H    0.112089
    18  H    0.059648
    19  H    0.055859
    20  H    0.106115
    21  H    0.120404
    22  H    0.120404
    23  H    0.053192
    24  H    0.105027
    25  H    0.113002
    26  H    0.113002
 Sum of Mulliken charges =   0.00000

 Dipole moment (field-independent basis, Debye):
    X=              0.1220    Y=              0.3353    Z=              0.0000  Tot=              0.3568
 Quadrupole moment (field-independent basis, Debye-Ang):
   XX=            -56.3171   YY=            -59.5460   ZZ=            -66.8963
   XY=              0.5938   XZ=              0.0000   YZ=              0.0000

 Normal termination of Gaussian 09 at Fri Oct 30 15:57:43 2020.
